; Created by cgenff_charmm2gmx.py

[ moleculetype ]
; Name			   nrexcl
pos				 3

[ atoms ]
;	 nr		  type	resnr residue  atom   cgnr	   charge		mass  typeB    chargeB		massB
; residue	 1 pos rtp pos q	qsum
     1        PG2      1    pos      P      1      0.696     30.974   ;
     2      OG2P1      1    pos     O1      2     -0.924     15.999   ;
     3      OG2P1      1    pos     O2      3     -0.924     15.999   ;
     4      OG2P1      1    pos     O3      4     -0.924     15.999   ;
     5      OG2P1      1    pos     O4      5     -0.924     15.999   ;

[ bonds ]
;	ai	  aj funct			  c0			c1			  c2			c3
    1     2	 1
    1     3	 1
    1     4	 1
    1     5	 1

[ pairs ]
;	ai	  aj funct			  c0			c1			  c2			c3

[ angles ]
;	ai	  aj	ak funct			c0			  c1			c2			  c3
    2     1     3	5
    2     1     4	5
    2     1     5	5
    3     1     4	5
    3     1     5	5
    4     1     5	5

[ dihedrals ]
;	ai	  aj	ak	  al funct			  c0			c1			  c2			c3			  c4			c5

