; Created by cgenff_charmm2gmx.py

[ moleculetype ]
; Name			   nrexcl
glp				 3

[ atoms ]
;	 nr		  type	resnr residue  atom   cgnr	   charge		mass  typeB    chargeB		massB
; residue	 1 gly rtp gly q	qsum
     1        PG0      1    glp      P      1      1.728     30.974   ;
     2      OG311      1    glp     O1      2     -0.845     15.999   ;
     3      OG311      1    glp     O2      3     -0.845     15.999   ;
     4      OG2P1      1    glp     O3      4     -0.772     15.999   ;
     5      OG311      1    glp     O4      5     -0.600     15.999   ;
     6      OG2D1      1    glp     O5      6     -0.550     15.999   ;
     7      NG311      1    glp      N      7     -0.705     14.007   ;
     8      CG321      1    glp     C1      8     -0.110     12.011   ;
     9      CG321      1    glp     C2      9     -0.040     12.011   ;
    10      CG2O2      1    glp     C3     10      0.719     12.011   ;
    11       HGA2      1    glp     H1     11      0.090      1.008   ;
    12       HGA2      1    glp     H2     12      0.090      1.008   ;
    13     HGPAM1      1    glp     H3     13      0.368      1.008   ;
    14       HGA2      1    glp     H4     14      0.090      1.008   ;
    15       HGA2      1    glp     H5     15      0.090      1.008   ;
    16       HGP1      1    glp     H6     16      0.431      1.008   ;
    17       HGP1      1    glp     H7     17      0.431      1.008   ;
    18       HGP1      1    glp     H8     18      0.430      1.008   ;

[ bonds ]
;	ai	  aj funct			  c0			c1			  c2			c3
    1     2	 1
    1     3	 1
    1     4	 1
    1     8	 1
    2    16	 1
    3    17	 1
    5    10	 1
    5    18	 1
    6    10	 1
    7     9	 1
    7    13	 1
    7     8	 1
    8    11	 1
    8    12	 1
    9    10	 1
    9    15	 1
    9    14	 1

[ pairs ]
;	ai	  aj funct			  c0			c1			  c2			c3
    1     9	 1
    1    13	 1
    2    17	 1
    2    11	 1
    2    12	 1
    2     7	 1
    3    11	 1
    3    12	 1
    3     7	 1
    3    16	 1
    4    17	 1
    4    11	 1
    4    12	 1
    4     7	 1
    4    16	 1
    5     7	 1
    5    14	 1
    5    15	 1
    6    18	 1
    6     7	 1
    6    14	 1
    6    15	 1
    8    17	 1
    8    10	 1
    8    14	 1
    8    15	 1
    8    16	 1
    9    18	 1
    9    11	 1
    9    12	 1
   10    13	 1
   11    13	 1
   12    13	 1
   13    14	 1
   13    15	 1

[ angles ]
;	ai	  aj	ak funct			c0			  c1			c2			  c3
    2     1     3	5
    2     1     4	5
    2     1     8	5
    3     1     4	5
    3     1     8	5
    4     1     8	5
    1     2    16	5
    1     3    17	5
   10     5    18	5
    9     7    13	5
    9     7     8	5
   13     7     8	5
    1     8    11	5
    1     8    12	5
    1     8     7	5
   11     8    12	5
   11     8     7	5
   12     8     7	5
   10     9    15	5
   10     9    14	5
   10     9     7	5
   15     9    14	5
   15     9     7	5
   14     9     7	5
    9    10     5	5
    9    10     6	5
    5    10     6	5

[ dihedrals ]
;	ai	  aj	ak	  al funct			  c0			c1			  c2			c3			  c4			c5
    3     1     2    16	 9
    4     1     2    16	 9
    8     1     2    16	 9
    2     1     3    17	 9
    4     1     3    17	 9
    8     1     3    17	 9
    2     1     8    11	 9
    2     1     8    12	 9
    2     1     8     7	 9
    3     1     8    11	 9
    3     1     8    12	 9
    3     1     8     7	 9
    4     1     8    11	 9
    4     1     8    12	 9
    4     1     8     7	 9
   18     5    10     9	 9
   18     5    10     6	 9
   13     7     9    10	 9
   13     7     9    15	 9
   13     7     9    14	 9
    8     7     9    10	 9
    8     7     9    15	 9
    8     7     9    14	 9
    9     7     8     1	 9
    9     7     8    11	 9
    9     7     8    12	 9
   13     7     8     1	 9
   13     7     8    11	 9
   13     7     8    12	 9
   15     9    10     5	 9
   15     9    10     6	 9
   14     9    10     5	 9
   14     9    10     6	 9
    7     9    10     5	 9
    7     9    10     6	 9

[ dihedrals ]
;	ai	  aj	ak	  al funct			  c0			c1			  c2			c3
   10     9     6     5	 2

