;
;	File 'topol.top' was generated
;	By user: rgrc-ctg (1000)
;	On host: rgrc-ctg
;	At date: Wed Jul 10 19:37:57 2024
;
;	This is a standalone topology file
;
;	Created by:
;	                    :-) GROMACS - gmx pdb2gmx, 2022.4 (-:
;	
;	Executable:   /usr/local/gromacs/bin/gmx
;	Data prefix:  /usr/local/gromacs
;	Working dir:  /opt/hpc/md_production/system_run
;	Command line:
;	  gmx pdb2gmx -f protein.pdb -o system_processed.gro -inter -chainsep interactive -ignh
;	Force field was read from current directory or a relative path - path added.
;

; Include forcefield parameters
#include "./charmm36-jul2022.ff/forcefield.itp"

; Include chain topologies
#include "topol_Protein.itp"
#include "topol_Other2.itp"

[ system ]
; Name
Protein

[ molecules ]
; Compound        #mols
Protein             1
Other2              1
